# Probe 0 (0.122 0.122 9.872)
# Probe 1 (0.102 0.102 9.872)
#             Probe                   0                   1
#              Time
              0.002       9836.03093458       9847.34928097
              0.004       9803.76150674       9814.98854124
              0.006       9814.52820359       9825.76864796
              0.008       9824.97887835       9836.23524043
               0.01       9818.89197076       9830.15689792
