# Probe 0 (0.122 0.122 9.872)
# Probe 1 (0.102 0.102 9.872)
#             Probe                   0                   1
#              Time
              0.002                   (3.4817433948e-05 3.58413170919e-05 4.06787241038e-06)                   (-9.85204573955e-06 -7.97569804085e-06 1.20819496995e-05)
              0.004                   (6.60306621202e-05 6.67132860072e-05 9.24793316075e-06)                   (-2.599622837e-05 -2.57497792727e-05 2.5087908387e-05)
              0.006                   (9.79552388404e-05 9.73031633609e-05 1.4196843048e-05)                   (-4.33388789185e-05 -4.51486358799e-05 3.80326825757e-05)
              0.008                   (0.000129872125644 0.000129579525981 1.89427645926e-05)                   (-6.2968530536e-05 -6.43054606646e-05 5.09548569181e-05)
               0.01                   (0.000162649889915 0.000162078990976 2.36619960919e-05)                   (-8.30353488699e-05 -8.48065055868e-05 6.40980474794e-05)
